System energy                                                           
SP        RB3LYP                                                      CC-pVTZ/Auto        
Number of atoms                            I                6
Info1-9                                    I   N=           9
          19          18           0           0           0         110
           1          18        -502
Full Title                                 C   N=           2
System energy           
Route                                      C   N=           5
# b3lyp/cc-pVTZ/auto # integral=ultrafine # Symmetry=None   
Charge                                     I                0
Multiplicity                               I                1
Number of electrons                        I               16
Number of alpha electrons                  I                8
Number of beta electrons                   I                8
Number of basis functions                  I              116
Number of independent functions            I              116
Number of point charges in /Mol/           I                0
Number of translation vectors              I                0
Atomic numbers                             I   N=           6
           6           6           1           1           1           1
Nuclear charges                            R   N=           6
  6.00000000E+00  6.00000000E+00  1.00000000E+00  1.00000000E+00  1.00000000E+00
  1.00000000E+00
Current cartesian coordinates              R   N=          18
  0.00000000E+00  0.00000000E+00 -1.02706615E+00  0.00000000E+00  0.00000000E+00
  1.02706615E+00 -1.66917241E+00  0.00000000E+00 -2.22428135E+00  1.66917241E+00
  0.00000000E+00 -2.22428135E+00  1.66917241E+00  0.00000000E+00  2.22428135E+00
 -1.66917241E+00  0.00000000E+00  2.22428135E+00
Number of symbols in /Mol/                 I                0
Force Field                                I                0
Atom Types                                 C   N=           6
                                                            
            
Int Atom Types                             I   N=           6
           0           0           0           0           0           0
MM charges                                 R   N=           6
  0.00000000E+00  0.00000000E+00  0.00000000E+00  0.00000000E+00  0.00000000E+00
  0.00000000E+00
Integer atomic weights                     I   N=           6
          12          12           1           1           1           1
Real atomic weights                        R   N=           6
  1.20000000E+01  1.20000000E+01  1.00782504E+00  1.00782504E+00  1.00782504E+00
  1.00782504E+00
Atom fragment info                         I   N=           6
           0           0           0           0           0           0
Atom residue num                           I   N=           6
           0           0           0           0           0           0
Nuclear spins                              I   N=           6
           0           0           1           1           1           1
Nuclear ZEff                               R   N=           6
 -3.60000000E+00 -3.60000000E+00 -1.00000000E+00 -1.00000000E+00 -1.00000000E+00
 -1.00000000E+00
Nuclear ZNuc                               R   N=           6
  6.00000000E+00  6.00000000E+00  1.00000000E+00  1.00000000E+00  1.00000000E+00
  1.00000000E+00
Nuclear QMom                               R   N=           6
  0.00000000E+00  0.00000000E+00  0.00000000E+00  0.00000000E+00  0.00000000E+00
  0.00000000E+00
Nuclear GFac                               R   N=           6
  0.00000000E+00  0.00000000E+00  2.79284600E+00  2.79284600E+00  2.79284600E+00
  2.79284600E+00
MicOpt                                     I   N=           6
          -1          -1          -1          -1          -1          -1
Number of residues                         I                0
Number of secondary structures             I                0
Number of contracted shells                I               44
Number of primitive shells                 I               78
Pure/Cartesian d shells                    I                0
Pure/Cartesian f shells                    I                0
Highest angular momentum                   I                3
Largest degree of contraction              I                7
Shell types                                I   N=          44
           0           0           0           0           1           1
           1          -2          -2          -3           0           0
           0           0           1           1           1          -2
          -2          -3           0           0           0           1
           1          -2           0           0           0           1
           1          -2           0           0           0           1
           1          -2           0           0           0           1
           1          -2
Number of primitives per shell             I   N=          44
           7           6           1           1           3           1
           1           1           1           1           7           6
           1           1           3           1           1           1
           1           1           3           1           1           1
           1           1           3           1           1           1
           1           1           3           1           1           1
           1           1           3           1           1           1
           1           1
Shell to atom map                          I   N=          44
           1           1           1           1           1           1
           1           1           1           1           2           2
           2           2           2           2           2           2
           2           2           3           3           3           3
           3           3           4           4           4           4
           4           4           5           5           5           5
           5           5           6           6           6           6
           6           6
Primitive exponents                        R   N=          78
  8.23600000E+03  1.23500000E+03  2.80800000E+02  7.92700000E+01  2.55900000E+01
  8.99700000E+00  3.31900000E+00  2.80800000E+02  7.92700000E+01  2.55900000E+01
  8.99700000E+00  3.31900000E+00  3.64300000E-01  9.05900000E-01  1.28500000E-01
  1.87100000E+01  4.13300000E+00  1.20000000E+00  3.82700000E-01  1.20900000E-01
  1.09700000E+00  3.18000000E-01  7.61000000E-01  8.23600000E+03  1.23500000E+03
  2.80800000E+02  7.92700000E+01  2.55900000E+01  8.99700000E+00  3.31900000E+00
  2.80800000E+02  7.92700000E+01  2.55900000E+01  8.99700000E+00  3.31900000E+00
  3.64300000E-01  9.05900000E-01  1.28500000E-01  1.87100000E+01  4.13300000E+00
  1.20000000E+00  3.82700000E-01  1.20900000E-01  1.09700000E+00  3.18000000E-01
  7.61000000E-01  3.38700000E+01  5.09500000E+00  1.15900000E+00  3.25800000E-01
  1.02700000E-01  1.40700000E+00  3.88000000E-01  1.05700000E+00  3.38700000E+01
  5.09500000E+00  1.15900000E+00  3.25800000E-01  1.02700000E-01  1.40700000E+00
  3.88000000E-01  1.05700000E+00  3.38700000E+01  5.09500000E+00  1.15900000E+00
  3.25800000E-01  1.02700000E-01  1.40700000E+00  3.88000000E-01  1.05700000E+00
  3.38700000E+01  5.09500000E+00  1.15900000E+00  3.25800000E-01  1.02700000E-01
  1.40700000E+00  3.88000000E-01  1.05700000E+00
Contraction coefficients                   R   N=          78
  5.41978320E-04  4.19287382E-03  2.15221621E-02  8.35343220E-02  2.39582846E-01
  4.42852842E-01  3.51799562E-01 -5.94922494E-05 -1.14815831E-03 -1.00191374E-02
 -6.12194923E-02 -1.73269854E-01  1.07291519E+00  1.00000000E+00  1.00000000E+00
  3.94263872E-02  2.44088985E-01  8.15492009E-01  1.00000000E+00  1.00000000E+00
  1.00000000E+00  1.00000000E+00  1.00000000E+00  5.41978320E-04  4.19287382E-03
  2.15221621E-02  8.35343220E-02  2.39582846E-01  4.42852842E-01  3.51799562E-01
 -5.94922494E-05 -1.14815831E-03 -1.00191374E-02 -6.12194923E-02 -1.73269854E-01
  1.07291519E+00  1.00000000E+00  1.00000000E+00  3.94263872E-02  2.44088985E-01
  8.15492009E-01  1.00000000E+00  1.00000000E+00  1.00000000E+00  1.00000000E+00
  1.00000000E+00  2.54948632E-02  1.90362766E-01  8.52162022E-01  1.00000000E+00
  1.00000000E+00  1.00000000E+00  1.00000000E+00  1.00000000E+00  2.54948632E-02
  1.90362766E-01  8.52162022E-01  1.00000000E+00  1.00000000E+00  1.00000000E+00
  1.00000000E+00  1.00000000E+00  2.54948632E-02  1.90362766E-01  8.52162022E-01
  1.00000000E+00  1.00000000E+00  1.00000000E+00  1.00000000E+00  1.00000000E+00
  2.54948632E-02  1.90362766E-01  8.52162022E-01  1.00000000E+00  1.00000000E+00
  1.00000000E+00  1.00000000E+00  1.00000000E+00
Coordinates of each shell                  R   N=         132
  0.00000000E+00  0.00000000E+00 -1.02706615E+00  0.00000000E+00  0.00000000E+00
 -1.02706615E+00  0.00000000E+00  0.00000000E+00 -1.02706615E+00  0.00000000E+00
  0.00000000E+00 -1.02706615E+00  0.00000000E+00  0.00000000E+00 -1.02706615E+00
  0.00000000E+00  0.00000000E+00 -1.02706615E+00  0.00000000E+00  0.00000000E+00
 -1.02706615E+00  0.00000000E+00  0.00000000E+00 -1.02706615E+00  0.00000000E+00
  0.00000000E+00 -1.02706615E+00  0.00000000E+00  0.00000000E+00 -1.02706615E+00
  0.00000000E+00  0.00000000E+00  1.02706615E+00  0.00000000E+00  0.00000000E+00
  1.02706615E+00  0.00000000E+00  0.00000000E+00  1.02706615E+00  0.00000000E+00
  0.00000000E+00  1.02706615E+00  0.00000000E+00  0.00000000E+00  1.02706615E+00
  0.00000000E+00  0.00000000E+00  1.02706615E+00  0.00000000E+00  0.00000000E+00
  1.02706615E+00  0.00000000E+00  0.00000000E+00  1.02706615E+00  0.00000000E+00
  0.00000000E+00  1.02706615E+00  0.00000000E+00  0.00000000E+00  1.02706615E+00
 -1.66917241E+00  0.00000000E+00 -2.22428135E+00 -1.66917241E+00  0.00000000E+00
 -2.22428135E+00 -1.66917241E+00  0.00000000E+00 -2.22428135E+00 -1.66917241E+00
  0.00000000E+00 -2.22428135E+00 -1.66917241E+00  0.00000000E+00 -2.22428135E+00
 -1.66917241E+00  0.00000000E+00 -2.22428135E+00  1.66917241E+00  0.00000000E+00
 -2.22428135E+00  1.66917241E+00  0.00000000E+00 -2.22428135E+00  1.66917241E+00
  0.00000000E+00 -2.22428135E+00  1.66917241E+00  0.00000000E+00 -2.22428135E+00
  1.66917241E+00  0.00000000E+00 -2.22428135E+00  1.66917241E+00  0.00000000E+00
 -2.22428135E+00  1.66917241E+00  0.00000000E+00  2.22428135E+00  1.66917241E+00
  0.00000000E+00  2.22428135E+00  1.66917241E+00  0.00000000E+00  2.22428135E+00
  1.66917241E+00  0.00000000E+00  2.22428135E+00  1.66917241E+00  0.00000000E+00
  2.22428135E+00  1.66917241E+00  0.00000000E+00  2.22428135E+00 -1.66917241E+00
  0.00000000E+00  2.22428135E+00 -1.66917241E+00  0.00000000E+00  2.22428135E+00
 -1.66917241E+00  0.00000000E+00  2.22428135E+00 -1.66917241E+00  0.00000000E+00
  2.22428135E+00 -1.66917241E+00  0.00000000E+00  2.22428135E+00 -1.66917241E+00
  0.00000000E+00  2.22428135E+00
Density Number of contracted shells        I               88
Density Number of primitive shells         I               88
Density Pure/Cartesian d shells            I                0
Density Pure/Cartesian f shells            I                0
Density Highest angular momentum           I                4
Density Largest degree of contraction      I                1
Density Shell types                        I   N=          88
           0           0           0           0          -1          -2
          -1          -2          -1          -2          -1          -2
          -3          -4          -1          -2          -3          -4
          -1          -2          -3          -4           0           0
           0           0          -1          -2          -1          -2
          -1          -2          -1          -2          -3          -4
          -1          -2          -3          -4          -1          -2
          -3          -4           0           0          -1          -2
          -3          -1          -2          -3          -1          -2
          -3           0           0          -1          -2          -3
          -1          -2          -3          -1          -2          -3
           0           0          -1          -2          -3          -1
          -2          -3          -1          -2          -3           0
           0          -1          -2          -3          -1          -2
          -3          -1          -2          -3
Density Number of primitives per shell     I   N=          88
           1           1           1           1           1           1
           1           1           1           1           1           1
           1           1           1           1           1           1
           1           1           1           1           1           1
           1           1           1           1           1           1
           1           1           1           1           1           1
           1           1           1           1           1           1
           1           1           1           1           1           1
           1           1           1           1           1           1
           1           1           1           1           1           1
           1           1           1           1           1           1
           1           1           1           1           1           1
           1           1           1           1           1           1
           1           1           1           1           1           1
           1           1           1           1
Density Shell to atom map                  I   N=          88
           1           1           1           1           1           1
           1           1           1           1           1           1
           1           1           1           1           1           1
           1           1           1           1           2           2
           2           2           2           2           2           2
           2           2           2           2           2           2
           2           2           2           2           2           2
           2           2           3           3           3           3
           3           3           3           3           3           3
           3           4           4           4           4           4
           4           4           4           4           4           4
           5           5           5           5           5           5
           5           5           5           5           5           6
           6           6           6           6           6           6
           6           6           6           6
Density Primitive exponents                R   N=          88
  1.64720000E+04  2.47000000E+03  5.61600000E+02  1.58540000E+02  4.37624908E+01
  4.37624908E+01  1.79940000E+01  1.79940000E+01  7.40740899E+00  7.40740899E+00
  1.95206014E+00  1.95206014E+00  1.95206014E+00  1.95206014E+00  6.89164605E-01
  6.89164605E-01  6.89164605E-01  6.89164605E-01  2.49284175E-01  2.49284175E-01
  2.49284175E-01  2.49284175E-01  1.64720000E+04  2.47000000E+03  5.61600000E+02
  1.58540000E+02  4.37624908E+01  4.37624908E+01  1.79940000E+01  1.79940000E+01
  7.40740899E+00  7.40740899E+00  1.95206014E+00  1.95206014E+00  1.95206014E+00
  1.95206014E+00  6.89164605E-01  6.89164605E-01  6.89164605E-01  6.89164605E-01
  2.49284175E-01  2.49284175E-01  2.49284175E-01  2.49284175E-01  6.77400000E+01
  1.01900000E+01  2.49583948E+00  2.49583948E+00  2.49583948E+00  7.11084805E-01
  7.11084805E-01  7.11084805E-01  2.05400000E-01  2.05400000E-01  2.05400000E-01
  6.77400000E+01  1.01900000E+01  2.49583948E+00  2.49583948E+00  2.49583948E+00
  7.11084805E-01  7.11084805E-01  7.11084805E-01  2.05400000E-01  2.05400000E-01
  2.05400000E-01  6.77400000E+01  1.01900000E+01  2.49583948E+00  2.49583948E+00
  2.49583948E+00  7.11084805E-01  7.11084805E-01  7.11084805E-01  2.05400000E-01
  2.05400000E-01  2.05400000E-01  6.77400000E+01  1.01900000E+01  2.49583948E+00
  2.49583948E+00  2.49583948E+00  7.11084805E-01  7.11084805E-01  7.11084805E-01
  2.05400000E-01  2.05400000E-01  2.05400000E-01
Density Contraction coefficients           R   N=          88
  1.00000000E+00  1.00000000E+00  1.00000000E+00  1.00000000E+00  1.00000000E+00
  1.00000000E+00  1.00000000E+00  1.00000000E+00  1.00000000E+00  1.00000000E+00
  1.00000000E+00  1.00000000E+00  1.00000000E+00  1.00000000E+00  1.00000000E+00
  1.00000000E+00  1.00000000E+00  1.00000000E+00  1.00000000E+00  1.00000000E+00
  1.00000000E+00  1.00000000E+00  1.00000000E+00  1.00000000E+00  1.00000000E+00
  1.00000000E+00  1.00000000E+00  1.00000000E+00  1.00000000E+00  1.00000000E+00
  1.00000000E+00  1.00000000E+00  1.00000000E+00  1.00000000E+00  1.00000000E+00
  1.00000000E+00  1.00000000E+00  1.00000000E+00  1.00000000E+00  1.00000000E+00
  1.00000000E+00  1.00000000E+00  1.00000000E+00  1.00000000E+00  1.00000000E+00
  1.00000000E+00  1.00000000E+00  1.00000000E+00  1.00000000E+00  1.00000000E+00
  1.00000000E+00  1.00000000E+00  1.00000000E+00  1.00000000E+00  1.00000000E+00
  1.00000000E+00  1.00000000E+00  1.00000000E+00  1.00000000E+00  1.00000000E+00
  1.00000000E+00  1.00000000E+00  1.00000000E+00  1.00000000E+00  1.00000000E+00
  1.00000000E+00  1.00000000E+00  1.00000000E+00  1.00000000E+00  1.00000000E+00
  1.00000000E+00  1.00000000E+00  1.00000000E+00  1.00000000E+00  1.00000000E+00
  1.00000000E+00  1.00000000E+00  1.00000000E+00  1.00000000E+00  1.00000000E+00
  1.00000000E+00  1.00000000E+00  1.00000000E+00  1.00000000E+00  1.00000000E+00
  1.00000000E+00  1.00000000E+00  1.00000000E+00
Density P(S=P) Contraction coefficients    R   N=          88
  0.00000000E+00  0.00000000E+00  0.00000000E+00  0.00000000E+00  1.00000000E+00
  0.00000000E+00  1.00000000E+00  0.00000000E+00  1.00000000E+00  0.00000000E+00
  1.00000000E+00  0.00000000E+00  0.00000000E+00  0.00000000E+00  1.00000000E+00
  0.00000000E+00  0.00000000E+00  0.00000000E+00  1.00000000E+00  0.00000000E+00
  0.00000000E+00  0.00000000E+00  0.00000000E+00  0.00000000E+00  0.00000000E+00
  0.00000000E+00  1.00000000E+00  0.00000000E+00  1.00000000E+00  0.00000000E+00
  1.00000000E+00  0.00000000E+00  1.00000000E+00  0.00000000E+00  0.00000000E+00
  0.00000000E+00  1.00000000E+00  0.00000000E+00  0.00000000E+00  0.00000000E+00
  1.00000000E+00  0.00000000E+00  0.00000000E+00  0.00000000E+00  0.00000000E+00
  0.00000000E+00  1.00000000E+00  0.00000000E+00  0.00000000E+00  1.00000000E+00
  0.00000000E+00  0.00000000E+00  1.00000000E+00  0.00000000E+00  0.00000000E+00
  0.00000000E+00  0.00000000E+00  1.00000000E+00  0.00000000E+00  0.00000000E+00
  1.00000000E+00  0.00000000E+00  0.00000000E+00  1.00000000E+00  0.00000000E+00
  0.00000000E+00  0.00000000E+00  0.00000000E+00  1.00000000E+00  0.00000000E+00
  0.00000000E+00  1.00000000E+00  0.00000000E+00  0.00000000E+00  1.00000000E+00
  0.00000000E+00  0.00000000E+00  0.00000000E+00  0.00000000E+00  1.00000000E+00
  0.00000000E+00  0.00000000E+00  1.00000000E+00  0.00000000E+00  0.00000000E+00
  1.00000000E+00  0.00000000E+00  0.00000000E+00
Density Coordinates of each shell          R   N=         264
  0.00000000E+00  0.00000000E+00 -1.02706615E+00  0.00000000E+00  0.00000000E+00
 -1.02706615E+00  0.00000000E+00  0.00000000E+00 -1.02706615E+00  0.00000000E+00
  0.00000000E+00 -1.02706615E+00  0.00000000E+00  0.00000000E+00 -1.02706615E+00
  0.00000000E+00  0.00000000E+00 -1.02706615E+00  0.00000000E+00  0.00000000E+00
 -1.02706615E+00  0.00000000E+00  0.00000000E+00 -1.02706615E+00  0.00000000E+00
  0.00000000E+00 -1.02706615E+00  0.00000000E+00  0.00000000E+00 -1.02706615E+00
  0.00000000E+00  0.00000000E+00 -1.02706615E+00  0.00000000E+00  0.00000000E+00
 -1.02706615E+00  0.00000000E+00  0.00000000E+00 -1.02706615E+00  0.00000000E+00
  0.00000000E+00 -1.02706615E+00  0.00000000E+00  0.00000000E+00 -1.02706615E+00
  0.00000000E+00  0.00000000E+00 -1.02706615E+00  0.00000000E+00  0.00000000E+00
 -1.02706615E+00  0.00000000E+00  0.00000000E+00 -1.02706615E+00  0.00000000E+00
  0.00000000E+00 -1.02706615E+00  0.00000000E+00  0.00000000E+00 -1.02706615E+00
  0.00000000E+00  0.00000000E+00 -1.02706615E+00  0.00000000E+00  0.00000000E+00
 -1.02706615E+00  0.00000000E+00  0.00000000E+00  1.02706615E+00  0.00000000E+00
  0.00000000E+00  1.02706615E+00  0.00000000E+00  0.00000000E+00  1.02706615E+00
  0.00000000E+00  0.00000000E+00  1.02706615E+00  0.00000000E+00  0.00000000E+00
  1.02706615E+00  0.00000000E+00  0.00000000E+00  1.02706615E+00  0.00000000E+00
  0.00000000E+00  1.02706615E+00  0.00000000E+00  0.00000000E+00  1.02706615E+00
  0.00000000E+00  0.00000000E+00  1.02706615E+00  0.00000000E+00  0.00000000E+00
  1.02706615E+00  0.00000000E+00  0.00000000E+00  1.02706615E+00  0.00000000E+00
  0.00000000E+00  1.02706615E+00  0.00000000E+00  0.00000000E+00  1.02706615E+00
  0.00000000E+00  0.00000000E+00  1.02706615E+00  0.00000000E+00  0.00000000E+00
  1.02706615E+00  0.00000000E+00  0.00000000E+00  1.02706615E+00  0.00000000E+00
  0.00000000E+00  1.02706615E+00  0.00000000E+00  0.00000000E+00  1.02706615E+00
  0.00000000E+00  0.00000000E+00  1.02706615E+00  0.00000000E+00  0.00000000E+00
  1.02706615E+00  0.00000000E+00  0.00000000E+00  1.02706615E+00  0.00000000E+00
  0.00000000E+00  1.02706615E+00 -1.66917241E+00  0.00000000E+00 -2.22428135E+00
 -1.66917241E+00  0.00000000E+00 -2.22428135E+00 -1.66917241E+00  0.00000000E+00
 -2.22428135E+00 -1.66917241E+00  0.00000000E+00 -2.22428135E+00 -1.66917241E+00
  0.00000000E+00 -2.22428135E+00 -1.66917241E+00  0.00000000E+00 -2.22428135E+00
 -1.66917241E+00  0.00000000E+00 -2.22428135E+00 -1.66917241E+00  0.00000000E+00
 -2.22428135E+00 -1.66917241E+00  0.00000000E+00 -2.22428135E+00 -1.66917241E+00
  0.00000000E+00 -2.22428135E+00 -1.66917241E+00  0.00000000E+00 -2.22428135E+00
  1.66917241E+00  0.00000000E+00 -2.22428135E+00  1.66917241E+00  0.00000000E+00
 -2.22428135E+00  1.66917241E+00  0.00000000E+00 -2.22428135E+00  1.66917241E+00
  0.00000000E+00 -2.22428135E+00  1.66917241E+00  0.00000000E+00 -2.22428135E+00
  1.66917241E+00  0.00000000E+00 -2.22428135E+00  1.66917241E+00  0.00000000E+00
 -2.22428135E+00  1.66917241E+00  0.00000000E+00 -2.22428135E+00  1.66917241E+00
  0.00000000E+00 -2.22428135E+00  1.66917241E+00  0.00000000E+00 -2.22428135E+00
  1.66917241E+00  0.00000000E+00 -2.22428135E+00  1.66917241E+00  0.00000000E+00
  2.22428135E+00  1.66917241E+00  0.00000000E+00  2.22428135E+00  1.66917241E+00
  0.00000000E+00  2.22428135E+00  1.66917241E+00  0.00000000E+00  2.22428135E+00
  1.66917241E+00  0.00000000E+00  2.22428135E+00  1.66917241E+00  0.00000000E+00
  2.22428135E+00  1.66917241E+00  0.00000000E+00  2.22428135E+00  1.66917241E+00
  0.00000000E+00  2.22428135E+00  1.66917241E+00  0.00000000E+00  2.22428135E+00
  1.66917241E+00  0.00000000E+00  2.22428135E+00  1.66917241E+00  0.00000000E+00
  2.22428135E+00 -1.66917241E+00  0.00000000E+00  2.22428135E+00 -1.66917241E+00
  0.00000000E+00  2.22428135E+00 -1.66917241E+00  0.00000000E+00  2.22428135E+00
 -1.66917241E+00  0.00000000E+00  2.22428135E+00 -1.66917241E+00  0.00000000E+00
  2.22428135E+00 -1.66917241E+00  0.00000000E+00  2.22428135E+00 -1.66917241E+00
  0.00000000E+00  2.22428135E+00 -1.66917241E+00  0.00000000E+00  2.22428135E+00
 -1.66917241E+00  0.00000000E+00  2.22428135E+00 -1.66917241E+00  0.00000000E+00
  2.22428135E+00 -1.66917241E+00  0.00000000E+00  2.22428135E+00
Num ILSW                                   I              100
ILSW                                       I   N=         100
           0           0           0           0           2           0
           0           0           0           0         402          -1
           5           0           0           0           0           0
           0           0           1           0           0           0
           1           1           0           0           0           0
           0           0      100000           0          -1           0
           0           0           0           0           0           0
           0           0           0           1           0           0
           0 -2000000000           1           0           0           0
           0           0           4          52           0           0
           0           0           5           0           0           0
           0           0           0           0           0           1
           0           0           0           0           0           0
           0           0           0           0           0           0
           0           0           0           0           0           0
           0           0           0           0           0           0
           0           0           0           0
Num RLSW                                   I               52
RLSW                                       R   N=          52
  8.00000000E-01  7.20000000E-01  1.00000000E+00  8.10000000E-01  2.00000000E-01
  0.00000000E+00  0.00000000E+00  1.00000000E+00  0.00000000E+00  0.00000000E+00
  0.00000000E+00  0.00000000E+00  1.00000000E+00  0.00000000E+00  0.00000000E+00
  0.00000000E+00  0.00000000E+00  1.00000000E+00  0.00000000E+00  0.00000000E+00
  0.00000000E+00  0.00000000E+00  1.00000000E+00  0.00000000E+00  0.00000000E+00
  0.00000000E+00  0.00000000E+00  1.00000000E+00  0.00000000E+00  0.00000000E+00
  0.00000000E+00  0.00000000E+00  1.00000000E+00  0.00000000E+00  0.00000000E+00
  0.00000000E+00  0.00000000E+00  0.00000000E+00  1.00000000E+00  1.00000000E+00
  0.00000000E+00  1.00000000E+00  0.00000000E+00  0.00000000E+00  0.00000000E+00
  0.00000000E+00  0.00000000E+00  0.00000000E+00  0.00000000E+00  0.00000000E+00
  0.00000000E+00  0.00000000E+00
MxBond                                     I                3
NBond                                      I   N=           6
           3           3           1           1           1           1
IBond                                      I   N=          18
           2           3           4           1           5           6
           1           0           0           1           0           0
           2           0           0           2           0           0
RBond                                      R   N=          18
  3.00000000E+00  1.00000000E+00  1.00000000E+00  3.00000000E+00  1.00000000E+00
  1.00000000E+00  1.00000000E+00  0.00000000E+00  0.00000000E+00  1.00000000E+00
  0.00000000E+00  0.00000000E+00  1.00000000E+00  0.00000000E+00  0.00000000E+00
  1.00000000E+00  0.00000000E+00  0.00000000E+00
Virial Ratio                               R      1.992333213008655E+00
SCF Energy                                 R     -7.852292631620773E+01
Total Energy                               R     -7.852292631620773E+01
RMS Density                                R      7.974895174311964E-09
Job Status                                 I                1
Nuclear derivative order                   I                0
External E-field                           R   N=          35
  0.00000000E+00  0.00000000E+00  0.00000000E+00  0.00000000E+00  0.00000000E+00
  0.00000000E+00  0.00000000E+00  0.00000000E+00  0.00000000E+00  0.00000000E+00
  0.00000000E+00  0.00000000E+00  0.00000000E+00  0.00000000E+00  0.00000000E+00
  0.00000000E+00  0.00000000E+00  0.00000000E+00  0.00000000E+00  0.00000000E+00
  0.00000000E+00  0.00000000E+00  0.00000000E+00  0.00000000E+00  0.00000000E+00
  0.00000000E+00  0.00000000E+00  0.00000000E+00  0.00000000E+00  0.00000000E+00
  0.00000000E+00  0.00000000E+00  0.00000000E+00  0.00000000E+00  0.00000000E+00
IOpCl                                      I                0
IROHF                                      I                0
Alpha Orbital Energies                     R   N=         116
 -1.01369339E+01 -1.01304351E+01 -8.17192786E-01 -5.66011703E-01 -4.92442894E-01
 -4.59735453E-01 -3.28493135E-01 -3.13572070E-01  5.41107164E-02  5.96676463E-02
  6.78507749E-02  8.80157131E-02  1.61697497E-01  2.31633352E-01  2.68706409E-01
  2.76332327E-01  3.01562998E-01  3.21912800E-01  4.10971658E-01  4.12657936E-01
  4.55710896E-01  4.74801991E-01  4.90466356E-01  4.97421937E-01  5.52598621E-01
  6.70422267E-01  6.98238940E-01  7.23009856E-01  7.62535240E-01  7.98477102E-01
  9.36885051E-01  9.50748019E-01  9.82855716E-01  1.00788617E+00  1.03460535E+00
  1.08256456E+00  1.16206492E+00  1.18806980E+00  1.19158713E+00  1.27110054E+00
  1.32066423E+00  1.32704907E+00  1.35566696E+00  1.45495581E+00  1.45495829E+00
  1.54763252E+00  1.72885743E+00  1.76542503E+00  1.95230035E+00  2.02438595E+00
  2.29432982E+00  2.32259846E+00  2.32746376E+00  2.35174627E+00  2.45240940E+00
  2.47764525E+00  2.54399025E+00  2.63582332E+00  2.75646074E+00  2.78708983E+00
  2.80408711E+00  2.80575158E+00  2.82245077E+00  2.83213847E+00  2.84443248E+00
  2.86318387E+00  3.01703980E+00  3.02065276E+00  3.07234800E+00  3.11278371E+00
  3.21276583E+00  3.26620653E+00  3.27207798E+00  3.31935556E+00  3.34888310E+00
  3.35247477E+00  3.45381890E+00  3.54142491E+00  3.59965025E+00  3.67846184E+00
  3.70349629E+00  3.77907489E+00  3.80367053E+00  3.81405834E+00  3.82667044E+00
  3.90582807E+00  3.97395952E+00  4.05603099E+00  4.06311726E+00  4.10579290E+00
  4.12286169E+00  4.14739211E+00  4.28233845E+00  4.39163455E+00  4.60326997E+00
  4.62960626E+00  4.64021940E+00  4.71644211E+00  4.79185028E+00  4.88669178E+00
  4.96645809E+00  4.98807303E+00  5.03816781E+00  5.19319710E+00  5.22292035E+00
  5.23298865E+00  5.31155143E+00  5.40542421E+00  5.44891208E+00  5.59536421E+00
  5.83403979E+00  6.35147407E+00  6.56964118E+00  6.77092064E+00  1.13348550E+01
  1.82677297E+01
Alpha MO coefficients                      R   N=       13456
  6.88653265E-01  2.22160693E-03  3.84201690E-02  7.53825374E-03 -1.26622986E-15